 Gaussian 16, Revision C.01,
 Gaussian 16:  ES64L-G16RevC.01  3-Jul-2019

 ----------------------------------------------------------------------
 #P b3lyp/6-311++G* EmpiricalDispersion=GD3BJ scf(qc) opt(tight,maxcycl
 e=100)
 ----------------------------------------------------------------------

 ------------------------------
 Gaussian input prepared by ASE
 ------------------------------
 Symbolic Z-matrix:
 Charge =  0 Multiplicity = 1

 SCF Done:  E(RB3LYP) =  -1930.56328698     a.u. after   10 cycles
 SCF Done:  E(RB3LYP) =  -1930.57475942     a.u. after   24 cycles
 SCF Done:  E(RB3LYP) =  -1930.56944671     a.u. after   35 cycles
 SCF Done:  E(RB3LYP) =  -1930.57423788     a.u. after   25 cycles
 SCF Done:  E(RB3LYP) =  -1930.57589098     a.u. after    7 cycles
 SCF Done:  E(RB3LYP) =  -1930.57607905     a.u. after   29 cycles
 SCF Done:  E(RB3LYP) =  -1930.57678396     a.u. after   24 cycles
 SCF Done:  E(RB3LYP) =  -1930.57685087     a.u. after   11 cycles
 SCF Done:  E(RB3LYP) =  -1930.57687848     a.u. after   12 cycles
 SCF Done:  E(RB3LYP) =  -1930.57688660     a.u. after   13 cycles
 SCF Done:  E(RB3LYP) =  -1930.57691086     a.u. after    2 cycles
 SCF Done:  E(RB3LYP) =  -1930.57691086     a.u. after    2 cycles
 SCF Done:  E(RB3LYP) =  -1930.57691085     a.u. after    2 cycles
 SCF Done:  E(RB3LYP) =  -1930.57691085     a.u. after    2 cycles
 SCF Done:  E(RB3LYP) =  -1930.57691085     a.u. after    2 cycles
 SCF Done:  E(RB3LYP) =  -1930.57691085     a.u. after    2 cycles
 SCF Done:  E(RB3LYP) =  -1930.57691085     a.u. after    2 cycles
 SCF Done:  E(RB3LYP) =  -1930.57691085     a.u. after    2 cycles
 SCF Done:  E(RB3LYP) =  -1930.57691085     a.u. after    2 cycles
 SCF Done:  E(RB3LYP) =  -1930.57691085     a.u. after    2 cycles
 Optimization completed.
    -- Stationary point found.

                         Standard orientation:
 ---------------------------------------------------------------------
 Center     Atomic      Atomic             Coordinates (Angstroms)
 Number     Number       Type             X           Y           Z
 ---------------------------------------------------------------------
      1          6           0       -5.159977    2.516666    0.133852
      2          7           0       -4.113183    3.258841    0.345209
      3          6           0       -3.037576    2.405285    0.167335
      4          6           0       -3.473758    1.125424   -0.164452
      5          7           0       -4.848923    1.198584   -0.201333
      6          6           0       -5.818339    0.119499   -0.282983
      7          6           0       -5.746295   -0.788737   -1.562729
      8          6           0       -5.913273   -2.199894   -0.951250
      9          6           0       -5.218034   -2.029451    0.398019
     10          8           0       -5.714529   -0.747322    0.841545
     11          6           0       -5.495210   -3.092270    1.440673
     12          8           0       -4.808833   -2.875751    2.664797
     13          8           0       -7.283087   -2.563709   -0.809042
     14          8           0       -4.593496   -0.652968   -2.350847
     15          7           0       -2.723839    0.028285   -0.420380
     16          6           0       -1.418458    0.243806   -0.323336
     17          7           0       -0.893246    1.460322    0.012275
     18          6           0       -1.631822    2.634349    0.276763
     19          8           0       -1.037350    3.675308    0.559647
     20          7           0       -0.550294   -0.761269   -0.546263
     21          1           0       -6.188644    2.841834    0.195214
     22          1           0       -6.791883    0.609571   -0.225294
     23          1           0       -6.590866   -0.574411   -2.217832
     24          1           0       -5.459800   -2.951742   -1.595406
     25          1           0       -4.134109   -1.948416    0.238565
     26          1           0       -5.235465   -4.067994    1.005696
     27          1           0       -6.552996   -3.117741    1.699641
     28          1           0       -3.868200   -2.749290    2.489783
     29          1           0       -7.678851   -2.036320   -0.102248
     30          1           0       -3.793702   -0.641153   -1.788678
     31          1           0        0.132607    1.566721    0.057180
     32          1           0       -0.926051   -1.636427   -0.868377
     33          1           0        0.460537   -0.615872   -0.566129
     34          6           0        3.975570    3.169827    0.584590
     35          6           0        4.740912    2.100805    0.274443
     36          7           0        4.181294    0.915202   -0.121080
     37          6           0        2.760376    0.786307   -0.196588
     38          8           0        2.283217   -0.290565   -0.562398
     39          7           0        2.003067    1.857479    0.122399
     40          6           0        2.551214    3.015029    0.503081
     41          7           0        1.734517    4.025746    0.802676
     42          6           0        4.953322   -0.273492   -0.382362
     43          6           0        6.344241   -0.189629   -1.020354
     44          6           0        6.750765   -1.671278   -0.882982
     45          6           0        6.132517   -2.044160    0.505700
     46          8           0        5.225155   -0.969460    0.840521
     47          6           0        5.432990   -3.398416    0.544527
     48          8           0        5.012891   -3.758651    1.850260
     49          8           0        6.321147   -2.475472   -1.969814
     50          8           0        7.249551    0.647296   -0.309074
     51          1           0        4.428770    4.106514    0.880102
     52          1           0        5.819549    2.128514    0.289346
     53          1           0        0.712703    3.919834    0.725059
     54          1           0        2.108892    4.914594    1.088888
     55          1           0        4.303038   -0.884230   -1.014544
     56          1           0        6.345064    0.148683   -2.054733
     57          1           0        7.835477   -1.763853   -0.878613
     58          1           0        6.911491   -2.034231    1.276445
     59          1           0        6.093118   -4.156888    0.106944
     60          1           0        4.518060   -3.367023   -0.050005
     61          1           0        5.781537   -3.978219    2.390195
     62          1           0        5.361053   -2.447830   -2.068105
     63          1           0        7.270592    0.365368    0.615948
 ---------------------------------------------------------------------

 The electronic state is 1-A.
 Alpha  occ. eigenvalues --  -19.17226 -19.16682 -19.16595 -19.14693 -19.14586
 Alpha  occ. eigenvalues --  -19.13804 -19.12638 -19.12095 -19.11539 -19.09822
 Alpha  occ. eigenvalues --  -14.40562 -14.37972 -14.36092 -14.35410 -14.34026
 Alpha  occ. eigenvalues --  -14.32656 -14.32044 -14.30603 -10.32694 -10.30950
 Alpha  occ. eigenvalues --  -10.29804 -10.29723 -10.28764 -10.28316 -10.26919
 Alpha  occ. eigenvalues --  -10.26744 -10.26323 -10.26143 -10.25287 -10.24557
 Alpha  occ. eigenvalues --  -10.23776 -10.23712 -10.23471 -10.23361 -10.22481
 Alpha  occ. eigenvalues --  -10.21010 -10.19364  -1.11018  -1.08402  -1.08355
 Alpha  occ. eigenvalues --   -1.07012  -1.06573  -1.05763  -1.04930  -1.04071
 Alpha  occ. eigenvalues --   -1.03446  -1.02799  -1.02518  -1.01035  -1.00621
 Alpha  occ. eigenvalues --   -0.98252  -0.91643  -0.91417  -0.90768  -0.89455
 Alpha  occ. eigenvalues --   -0.82767  -0.80869  -0.78833  -0.78601  -0.77371
 Alpha  occ. eigenvalues --   -0.76195  -0.72412  -0.70459  -0.69943  -0.68181
 Alpha  occ. eigenvalues --   -0.67420  -0.66543  -0.65528  -0.64181  -0.63837
 Alpha  occ. eigenvalues --   -0.61985  -0.60870  -0.60540  -0.60006  -0.57802
 Alpha  occ. eigenvalues --   -0.56647  -0.56306  -0.56127  -0.55292  -0.55051
 Alpha  occ. eigenvalues --   -0.54510  -0.53373  -0.53050  -0.52024  -0.51947
 Alpha  occ. eigenvalues --   -0.51412  -0.50970  -0.50787  -0.50072  -0.49521
 Alpha  occ. eigenvalues --   -0.49201  -0.48088  -0.47830  -0.47225  -0.46732
 Alpha  occ. eigenvalues --   -0.46464  -0.46301  -0.45745  -0.45299  -0.45033
 Alpha  occ. eigenvalues --   -0.44729  -0.43881  -0.43289  -0.43014  -0.42739
 Alpha  occ. eigenvalues --   -0.42138  -0.41797  -0.41586  -0.40769  -0.40599
 Alpha  occ. eigenvalues --   -0.39744  -0.39680  -0.39181  -0.38005  -0.36967
 Alpha  occ. eigenvalues --   -0.36234  -0.36113  -0.34927  -0.34762  -0.33633
 Alpha  occ. eigenvalues --   -0.32732  -0.32635  -0.32105  -0.31713  -0.31409
 Alpha  occ. eigenvalues --   -0.30868  -0.30512  -0.30377  -0.28978  -0.28643
 Alpha  occ. eigenvalues --   -0.28616  -0.28081  -0.27971  -0.27473  -0.27127
 Alpha  occ. eigenvalues --   -0.26889  -0.26247  -0.21644
 Alpha virt. eigenvalues --   -0.06841  -0.03429  -0.02850  -0.02381  -0.02182
 Alpha virt. eigenvalues --   -0.02103  -0.01414  -0.01266  -0.01103  -0.00944
 Alpha virt. eigenvalues --    0.00063   0.00552   0.00654   0.01191   0.01297

 Mulliken charges:
               1
     1  C    0.287495
     2  N   -0.103213
     3  C   -0.237715
     4  C   -1.016109
     5  N    0.458657
     6  C   -0.162846
     7  C   -0.769180
     8  C   -0.435671
     9  C   -0.146958
    10  O    0.066302
    11  C   -0.682175
    12  O   -0.241404
    13  O   -0.214815
    14  O   -0.181008
    15  N   -0.349248
    16  C    0.394788
    17  N   -0.639957
    18  C    0.064980
    19  O   -0.388257
    20  N   -0.617472
    21  H    0.283072
    22  H    0.303598
    23  H    0.320850
    24  H    0.342209
    25  H    0.264648
    26  H    0.289542
    27  H    0.243902
    28  H    0.327331
    29  H    0.334323
    30  H    0.426493
    31  H    0.821838
    32  H    0.386827
    33  H    0.623696
    34  C   -0.626013
    35  C    0.307632
    36  N    0.454501
    37  C   -0.295255
    38  O   -0.386338
    39  N   -0.358934
    40  C   -0.055707
    41  N   -0.739717
    42  C   -1.015310
    43  C   -0.208726
    44  C   -0.427601
    45  C   -0.076490
    46  O    0.122372
    47  C   -0.621775
    48  O   -0.279176
    49  O   -0.169717
    50  O   -0.273204
    51  H    0.303657
    52  H    0.307941
    53  H    0.592155
    54  H    0.410135
    55  H    0.377135
    56  H    0.364289
    57  H    0.332896
    58  H    0.270496
    59  H    0.289796
    60  H    0.350684
    61  H    0.336546
    62  H    0.317049
    63  H    0.342155
 Sum of Mulliken charges =  -0.00000

 Dipole moment (field-independent basis, Debye):
    X=              9.9784    Y=             -1.0161    Z=             -0.1258  Tot=             10.0308
 Quadrupole moment (field-independent basis, Debye-Ang):
   XX=           -181.4476   YY=           -219.6381   ZZ=           -236.0662
   XY=              2.5071   XZ=             16.8549   YZ=              3.1407

 Normal termination of Gaussian 16 at Thu Jul  6 16:03:28 2023.
