 Q-Chem 6.0 (devel), Q-Chem, Inc., Pleasanton, CA (2022)
 Q-Chem 6.0.0 for Intel X86 EM64T Linux

User input:
--------------------------------------------------------------
$comment
   ASE generated input file
$end

$rem
   DISTORT                     TRUE
   METHOD                      PBE
   BASIS                       CC-PVDZ
   JOBTYPE                     OPT
   DFT_D                       D3_BJ
   GEOM_OPT_MAX_CYCLES         150
   USE_LIBQINTS                1
   MAX_SCF_CYCLES              150
   SYM_IGNORE                  TRUE
$end

$molecule
   0 1
   C  0.436880  -0.756690  0.773090
   C  0.436880  0.756690  0.773090
   C  -0.873750  0.000000  0.773090
   C  0.436880  0.756690  -0.773090
   C  0.436880  -0.756690  -0.773090
   C  -0.873750  0.000000  -0.773090
   H  0.838750  -1.452750  1.491410
   H  0.838750  1.452750  1.491410
   H  -1.677490  0.000000  1.491410
   H  0.838750  1.452750  -1.491410
   H  0.838750  -1.452750  -1.491410
   H  -1.677490  0.000000  -1.491410
$end

$distort
   model                       gostshyp
   pressure                    50000
   npoints_heavy               302
   npoints_hydrogen            302
   scaling                     1.0
$end

--------------------------------------------------------------

   11    -231.5029713302      4.17e-10  Convergence criterion met
 Total energy in the final basis set =     -231.5029713302
    8    -231.5030254797      4.05e-09  Convergence criterion met
 Total energy in the final basis set =     -231.5030254797
    8    -231.5030734320      9.40e-09  Convergence criterion met
 Total energy in the final basis set =     -231.5030734320
    7    -231.5030811334      5.69e-09  Convergence criterion met
 Total energy in the final basis set =     -231.5030811334
    8    -231.5030967042      1.69e-09  Convergence criterion met
 Total energy in the final basis set =     -231.5030967042
    7    -231.5030980639      7.65e-09  Convergence criterion met
 Total energy in the final basis set =     -231.5030980639
    7    -231.5030983287      3.50e-09  Convergence criterion met
 Total energy in the final basis set =     -231.5030983287

                    Orbital Energies (a.u.)
 --------------------------------------------------------------

 Alpha MOs
 -- Occupied --
 -9.8787  -9.8787  -9.8786  -9.8785  -9.8771  -9.8771  -0.8780  -0.6655
 -0.5639  -0.5634  -0.4684  -0.4465  -0.4457  -0.3787  -0.3676  -0.3392
 -0.3379  -0.2367  -0.2354  -0.1754  -0.1752

          Ground-State Mulliken Net Atomic Charges

     Atom                 Charge (a.u.)
  ----------------------------------------
      1 C                    -0.026497
      2 C                    -0.026497
      3 C                    -0.028129
      4 C                    -0.026497
      5 C                    -0.026497
      6 C                    -0.028129
      7 H                     0.027432
      8 H                     0.027432
      9 H                     0.026258
     10 H                     0.027432
     11 H                     0.027432
     12 H                     0.026258
  ----------------------------------------
  Sum of atomic charges =     0.000000

                    Cartesian Multipole Moments
 -----------------------------------------------------------------
    Charge (ESU x 10^10)
                -0.0000
    Dipole Moment (Debye)
         X      -0.0289      Y       0.0000      Z       0.0000
       Tot       0.0289
    Quadrupole Moments (Debye-Ang)
        XX     -34.0552     XY       0.0000     YY     -34.1379
        XZ      -0.0000     YZ       0.0000     ZZ     -31.6983

 Final energy is -231.503098328671
	**  OPTIMIZATION CONVERGED  **

             Standard Nuclear Orientation (Angstroms)
    I     Atom           X                Y                Z
 ----------------------------------------------------------------
    1      C       0.4400930636    -0.7578913410     0.7742884120
    2      C       0.4400930636     0.7578913410     0.7742884120
    3      C      -0.8684505237     0.0000000000     0.7706973960
    4      C       0.4400930636     0.7578913410    -0.7742884120
    5      C       0.4400930636    -0.7578913410    -0.7742884120
    6      C      -0.8684505237    -0.0000000000    -0.7706973960
    7      H       0.8377967178    -1.4475353801     1.5015442936
    8      H       0.8377967178     1.4475353801     1.5015442936
    9      H      -1.6873090390     0.0000000000     1.4710151022
   10      H       0.8377967178     1.4475353801    -1.5015442936
   11      H       0.8377967178    -1.4475353801    -1.5015442936
   12      H      -1.6873090390    -0.0000000000    -1.4710151022
 ----------------------------------------------------------------

 Total job time:  145.12s(wall), 576.21s(cpu)
        *  Thank you very much for using Q-Chem.  Have a nice day.  *
