 Q-Chem 6.0 (devel), Q-Chem, Inc., Pleasanton, CA (2022)
 Q-Chem 6.0.0 for Intel X86 EM64T Linux

User input:
--------------------------------------------------------------
$comment
   ASE generated input file
$end

$rem
   METHOD                      PBE
   BASIS                       CC-PVDZ
   JOBTYPE                     FREQ
   DFT_D                       D3_BJ
   VIBMAN_PRINT                7
   SYM_IGNORE                  TRUE
$end

$molecule
   0 1
   C  0.441792  -0.765556  0.781200
   C  0.441792  0.765556  0.781200
   C  -0.883505  0.000000  0.781252
   C  0.441792  0.765556  -0.781200
   C  0.441792  -0.765556  -0.781200
   C  -0.883505  0.000000  -0.781252
   H  0.844410  -1.463306  1.527769
   H  0.844410  1.463306  1.527769
   H  -1.688887  -0.000000  1.528010
   H  0.844410  1.463306  -1.527769
   H  0.844410  -1.463306  -1.527769
   H  -1.688887  0.000000  -1.528010
$end

--------------------------------------------------------------

             Standard Nuclear Orientation (Angstroms)
    I     Atom           X                Y                Z
 ----------------------------------------------------------------
    1      C       0.4417920000    -0.7655560000     0.7812000000
    2      C       0.4417920000     0.7655560000     0.7812000000
    3      C      -0.8835050000     0.0000000000     0.7812520000
    4      C       0.4417920000     0.7655560000    -0.7812000000
    5      C       0.4417920000    -0.7655560000    -0.7812000000
    6      C      -0.8835050000     0.0000000000    -0.7812520000
    7      H       0.8444100000    -1.4633060000     1.5277690000
    8      H       0.8444100000     1.4633060000     1.5277690000
    9      H      -1.6888870000    -0.0000000000     1.5280100000
   10      H       0.8444100000     1.4633060000    -1.5277690000
   11      H       0.8444100000    -1.4633060000    -1.5277690000
   12      H      -1.6888870000     0.0000000000    -1.5280100000
 ----------------------------------------------------------------

   10    -231.7892707222      6.53e-09  Convergence criterion met
 Total energy in the final basis set =     -231.7892707222

                    Orbital Energies (a.u.)
 --------------------------------------------------------------

 Alpha MOs
 -- Occupied --
 -9.9064  -9.9064  -9.9063  -9.9063  -9.9063  -9.9062  -0.8830  -0.6759
 -0.5738  -0.5737  -0.4775  -0.4575  -0.4574  -0.3902  -0.3785  -0.3509
 -0.3508  -0.2537  -0.2536  -0.1919  -0.1917

          Ground-State Mulliken Net Atomic Charges

     Atom                 Charge (a.u.)
  ----------------------------------------
      1 C                     0.033725
      2 C                     0.033725
      3 C                     0.034236
      4 C                     0.033725
      5 C                     0.033725
      6 C                     0.034236
      7 H                    -0.033876
      8 H                    -0.033876
      9 H                    -0.033933
     10 H                    -0.033876
     11 H                    -0.033876
     12 H                    -0.033933
  ----------------------------------------
  Sum of atomic charges =     0.000000

                    Cartesian Multipole Moments
 -----------------------------------------------------------------
    Charge (ESU x 10^10)
                 0.0000
    Dipole Moment (Debye)
         X      -0.0015      Y      -0.0000      Z       0.0000
       Tot       0.0015
    Quadrupole Moments (Debye-Ang)
        XX     -35.6167     XY       0.0000     YY     -35.6070
        XZ      -0.0000     YZ       0.0000     ZZ     -33.0067

 Frequency:       619.47                 650.82                 651.65
 Force Cnst:      0.6732                 0.3838                 0.3980
 Red. Mass:       2.9776                 1.5380                 1.5907
 IR Intens:        0.000                  0.000                  0.000
 Frequency:       758.70                 760.99                 783.34
 Force Cnst:      1.1247                 1.0430                 0.4018
 Red. Mass:       3.3162                 3.0569                 1.1114
 IR Intens:        0.000                  0.000                 38.388
 Frequency:       786.16                 819.74                 824.72
 Force Cnst:      0.4118                 0.6033                 0.6166
 Red. Mass:       1.1308                 1.5237                 1.5385
 IR Intens:       40.274                  3.754                  5.533
 Frequency:       911.60                 917.25                 921.50
 Force Cnst:      0.5929                 3.3282                 3.3488
 Red. Mass:       1.2110                 6.7140                 6.6934
 IR Intens:        0.000                  2.084                  1.948
 Frequency:       937.80                 942.26                 947.68
 Force Cnst:      0.6427                 0.6739                 0.7158
 Red. Mass:       1.2403                 1.2882                 1.3527
 IR Intens:        3.006                  0.001                  0.000
 Frequency:       982.43                 986.02                1101.62
 Force Cnst:      1.7768                 1.7907                 2.7829
 Red. Mass:       3.1245                 3.1260                 3.8921
 IR Intens:        0.000                  0.002                  0.000
 Frequency:      1116.91                1118.58                1213.94
 Force Cnst:      1.0042                 1.0015                 1.8487
 Red. Mass:       1.3663                 1.3585                 2.1292
 IR Intens:        0.000                  0.000                 10.567
 Frequency:      1218.42                1287.62                1319.22
 Force Cnst:      1.8868                 5.7612                 3.6560
 Red. Mass:       2.1571                 5.8978                 3.5655
 IR Intens:       10.320                  0.000                  0.189
 Frequency:      3117.44                3117.57                3131.32
 Force Cnst:      6.2382                 6.2383                 6.3259
 Red. Mass:       1.0895                 1.0894                 1.0950
 IR Intens:        0.000                  0.003                 29.785
 Frequency:      3131.38                3138.79                3144.72
 Force Cnst:      6.3254                 6.3761                 6.4825
 Red. Mass:       1.0949                 1.0984                 1.1126
 IR Intens:       29.949                 55.783                  0.006

 STANDARD THERMODYNAMIC QUANTITIES AT   298.15 K  AND     1.00 ATM

   This Molecule has  0 Imaginary Frequencies
   Zero point vibrational energy:       59.127 kcal/mol

   Atom    1 Element C  Has Mass   12.00000
   Atom    2 Element C  Has Mass   12.00000
   Atom    3 Element C  Has Mass   12.00000
   Atom    4 Element C  Has Mass   12.00000
   Atom    5 Element C  Has Mass   12.00000
   Atom    6 Element C  Has Mass   12.00000
   Atom    7 Element H  Has Mass    1.00783
   Atom    8 Element H  Has Mass    1.00783
   Atom    9 Element H  Has Mass    1.00783
   Atom   10 Element H  Has Mass    1.00783
   Atom   11 Element H  Has Mass    1.00783
   Atom   12 Element H  Has Mass    1.00783
   Molecular Mass:    78.046980 amu
   Principal axes and moments of inertia in amu*Bohr^2:
                             1           2           3
    Eigenvalues --      262.43811   338.47849   338.61199
          X               0.00000     0.00000     1.00000
          Y               0.00000     1.00000     0.00000
          Z               1.00000     0.00000     0.00000
   Rotational Symmetry Number is   1
   The Molecule is an Asymmetric Top
   Translational Enthalpy:        0.889 kcal/mol
   Rotational Enthalpy:           0.889 kcal/mol
   Vibrational Enthalpy:         60.006 kcal/mol
   gas constant (RT):             0.592 kcal/mol
   Translational Entropy:        38.979  cal/mol.K
   Rotational Entropy:           24.912  cal/mol.K
   Vibrational Entropy:           3.715  cal/mol.K

   Total Enthalpy:               62.376 kcal/mol
   Total Entropy:                67.606  cal/mol.K
 Total job time:  25.35s(wall), 100.40s(cpu)
        *  Thank you very much for using Q-Chem.  Have a nice day.  *
