 Q-Chem 6.0 (devel), Q-Chem, Inc., Pleasanton, CA (2022)
 Q-Chem 6.0.0 for Intel X86 EM64T Linux

User input:
--------------------------------------------------------------
$comment
   ASE generated input file
$end

$rem
   METHOD                      PBE
   BASIS                       CC-PVDZ
   JOBTYPE                     OPT
   DFT_D                       D3_BJ
   GEOM_OPT_MAX_CYCLES         150
   USE_LIBQINTS                1
   MAX_SCF_CYCLES              150
   SYM_IGNORE                  TRUE
$end

$molecule
   0 1
   C  0.397730  -0.688890  0.838210
   C  0.397730  0.688890  0.838210
   C  -0.795460  0.000000  0.838210
   C  0.397730  0.688890  -0.838210
   C  0.397730  -0.688890  -0.838210
   C  -0.795460  0.000000  -0.838210
   H  0.727930  -1.260800  1.633750
   H  0.727930  1.260800  1.633750
   H  -1.455850  0.000000  1.633750
   H  0.727930  1.260800  -1.633750
   H  0.727930  -1.260800  -1.633750
   H  -1.455850  0.000000  -1.633750
$end

--------------------------------------------------------------

   11    -231.6640100543      8.83e-10  Convergence criterion met
 Total energy in the final basis set =     -231.6640100543
   10    -231.7610344701      2.35e-10  Convergence criterion met
 Total energy in the final basis set =     -231.7610344701
    9    -231.7832919771      6.90e-10  Convergence criterion met
 Total energy in the final basis set =     -231.7832919771
    9    -231.7878362182      1.96e-09  Convergence criterion met
 Total energy in the final basis set =     -231.7878362182
    8    -231.7885348346      3.94e-09  Convergence criterion met
 Total energy in the final basis set =     -231.7885348346
    8    -231.7891457870      2.20e-09  Convergence criterion met
 Total energy in the final basis set =     -231.7891457870
    8    -231.7892607438      3.56e-09  Convergence criterion met
 Total energy in the final basis set =     -231.7892607438
    7    -231.7892703016      4.65e-09  Convergence criterion met
 Total energy in the final basis set =     -231.7892703016
    6    -231.7892707198      3.05e-09  Convergence criterion met
 Total energy in the final basis set =     -231.7892707198

                    Orbital Energies (a.u.)
 --------------------------------------------------------------

 Alpha MOs
 -- Occupied --
 -9.9064  -9.9064  -9.9063  -9.9063  -9.9063  -9.9062  -0.8830  -0.6759
 -0.5738  -0.5737  -0.4775  -0.4575  -0.4574  -0.3902  -0.3785  -0.3509
 -0.3508  -0.2537  -0.2536  -0.1919  -0.1917

          Ground-State Mulliken Net Atomic Charges

     Atom                 Charge (a.u.)
  ----------------------------------------
      1 C                     0.033725
      2 C                     0.033725
      3 C                     0.034236
      4 C                     0.033725
      5 C                     0.033725
      6 C                     0.034236
      7 H                    -0.033876
      8 H                    -0.033876
      9 H                    -0.033933
     10 H                    -0.033876
     11 H                    -0.033876
     12 H                    -0.033933
  ----------------------------------------
  Sum of atomic charges =     0.000000

                    Cartesian Multipole Moments
 -----------------------------------------------------------------
    Charge (ESU x 10^10)
                 0.0000
    Dipole Moment (Debye)
         X      -0.0015      Y       0.0000      Z       0.0000
       Tot       0.0015
    Quadrupole Moments (Debye-Ang)
        XX     -35.6167     XY       0.0000     YY     -35.6070
        XZ       0.0000     YZ       0.0000     ZZ     -33.0067

 Final energy is -231.789270719808
	**  OPTIMIZATION CONVERGED  **

             Standard Nuclear Orientation (Angstroms)
    I     Atom           X                Y                Z
 ----------------------------------------------------------------
    1      C       0.4417916255    -0.7655555409     0.7811998573
    2      C       0.4417916255     0.7655555409     0.7811998573
    3      C      -0.8835052331    -0.0000000000     0.7812520018
    4      C       0.4417916255     0.7655555409    -0.7811998573
    5      C       0.4417916255    -0.7655555409    -0.7811998573
    6      C      -0.8835052331    -0.0000000000    -0.7812520018
    7      H       0.8444096508    -1.4633063218     1.5277687881
    8      H       0.8444096508     1.4633063218     1.5277687881
    9      H      -1.6888873195     0.0000000000     1.5280099590
   10      H       0.8444096508     1.4633063218    -1.5277687881
   11      H       0.8444096508    -1.4633063218    -1.5277687881
   12      H      -1.6888873195     0.0000000000    -1.5280099590
 ----------------------------------------------------------------

 Total job time:  32.08s(wall), 127.96s(cpu)
        *  Thank you very much for using Q-Chem.  Have a nice day.  *
