 Q-Chem 6.0 (devel), Q-Chem, Inc., Pleasanton, CA (2022)
 Q-Chem 6.0.0 for Intel X86 EM64T Linux

User input:
--------------------------------------------------------------
$comment
   ASE generated input file
$end

$rem
   DISTORT                     TRUE
   METHOD                      PBE
   BASIS                       CC-PVDZ
   JOBTYPE                     OPT
   DFT_D                       D3_BJ
   GEOM_OPT_MAX_CYCLES         150
   USE_LIBQINTS                1
   MAX_SCF_CYCLES              150
   SYM_IGNORE                  TRUE
$end

$molecule
   0 1
   C  0.300129  0.858570  1.230637
   C  0.230639  -0.693180  1.377448
   C  -0.573009  0.787689  -0.054832
   C  -0.573009  -0.787689  0.054832
   C  0.230639  0.693180  -1.377448
   C  0.300129  -0.858570  -1.230637
   H  1.313511  1.281771  1.070880
   H  -0.170199  1.408920  2.068540
   H  -0.350308  -1.014571  2.264280
   H  1.197498  -1.237838  1.384041
   H  -1.495231  1.399803  -0.062301
   H  -1.495231  -1.399803  0.062301
   H  1.197498  1.237838  -1.384041
   H  -0.350308  1.014571  -2.264280
   H  1.313511  -1.281771  -1.070880
   H  -0.170199  -1.408920  -2.068540
$end

$distort
   model                       gostshyp
   pressure                    50000
   npoints_heavy               302
   npoints_hydrogen            302
   scaling                     1.0
$end

--------------------------------------------------------------

   12    -233.9532315812      9.27e-09  Convergence criterion met
 Total energy in the final basis set =     -233.9532315812
    9    -233.9589557751      8.32e-09  Convergence criterion met
 Total energy in the final basis set =     -233.9589557751
    9    -233.9597285464      4.51e-09  Convergence criterion met
 Total energy in the final basis set =     -233.9597285464
    8    -233.9597879232      5.44e-09  Convergence criterion met
 Total energy in the final basis set =     -233.9597879232
    9    -233.9598538773      1.61e-09  Convergence criterion met
 Total energy in the final basis set =     -233.9598538773
    7    -233.9598614222      6.44e-09  Convergence criterion met
 Total energy in the final basis set =     -233.9598614222
    7    -233.9598657797      9.54e-09  Convergence criterion met
 Total energy in the final basis set =     -233.9598657797
    6    -233.9598661242      6.84e-09  Convergence criterion met
 Total energy in the final basis set =     -233.9598661242

                    Orbital Energies (a.u.)
 --------------------------------------------------------------

 Alpha MOs
 -- Occupied --
 -9.8649  -9.8649  -9.8594  -9.8594  -9.8586  -9.8586  -0.7813  -0.6649
 -0.5942  -0.5375  -0.5156  -0.4353  -0.4283  -0.3938  -0.3817  -0.3437
 -0.3149  -0.2863  -0.2805  -0.2693  -0.2388  -0.2184  -0.2096

          Ground-State Mulliken Net Atomic Charges

     Atom                 Charge (a.u.)
  ----------------------------------------
      1 C                    -0.070692
      2 C                    -0.066611
      3 C                    -0.190494
      4 C                    -0.190494
      5 C                    -0.066611
      6 C                    -0.070692
      7 H                     0.073721
      8 H                     0.075762
      9 H                     0.075645
     10 H                     0.072231
     11 H                     0.030438
     12 H                     0.030438
     13 H                     0.072231
     14 H                     0.075645
     15 H                     0.073721
     16 H                     0.075762
  ----------------------------------------
  Sum of atomic charges =     0.000000

                    Cartesian Multipole Moments
 -----------------------------------------------------------------
    Charge (ESU x 10^10)
                 0.0000
    Dipole Moment (Debye)
         X      -0.0478      Y       0.0000      Z      -0.0000
       Tot       0.0478
    Quadrupole Moments (Debye-Ang)
        XX     -36.1001     XY       0.0000     YY     -37.3138
        XZ      -0.0000     YZ       0.1508     ZZ     -36.6651

 Final energy is -233.959866124209
	**  OPTIMIZATION CONVERGED  **

             Standard Nuclear Orientation (Angstroms)
    I     Atom           X                Y                Z
 ----------------------------------------------------------------
    1      C       0.3059558620     0.8427639120     1.2131766868
    2      C       0.2353925790    -0.6823930277     1.3649423507
    3      C      -0.5528818905     0.7829216724    -0.0574179025
    4      C      -0.5528818905    -0.7829216724     0.0574179025
    5      C       0.2353925790     0.6823930277    -1.3649423507
    6      C       0.3059558620    -0.8427639120    -1.2131766868
    7      H       1.2965641047     1.2712588738     1.1021270765
    8      H      -0.1841369845     1.3665436540     2.0288844916
    9      H      -0.3546830828    -0.9689834288     2.2314897026
   10      H       1.1632019877    -1.2444032526     1.4009131329
   11      H      -1.4563825757     1.3861385184    -0.0603435042
   12      H      -1.4563825757    -1.3861385184     0.0603435042
   13      H       1.1632019877     1.2444032526    -1.4009131329
   14      H      -0.3546830828     0.9689834288    -2.2314897026
   15      H       1.2965641047    -1.2712588738    -1.1021270765
   16      H      -0.1841369845    -1.3665436540    -2.0288844916
 ----------------------------------------------------------------

 Total job time:  281.94s(wall), 1112.62s(cpu)
        *  Thank you very much for using Q-Chem.  Have a nice day.  *
