 Q-Chem 6.0 (devel), Q-Chem, Inc., Pleasanton, CA (2022)
 Q-Chem 6.0.0 for Intel X86 EM64T Linux

User input:
--------------------------------------------------------------
$comment
   ASE generated input file
$end

$rem
   METHOD                      PBE
   BASIS                       CC-PVDZ
   JOBTYPE                     FREQ
   DFT_D                       D3_BJ
   VIBMAN_PRINT                7
   SYM_IGNORE                  TRUE
$end

$molecule
   0 1
   C  0.300129  0.858570  1.230637
   C  0.230639  -0.693180  1.377448
   C  -0.573009  0.787689  -0.054832
   C  -0.573009  -0.787689  0.054832
   C  0.230639  0.693180  -1.377448
   C  0.300129  -0.858570  -1.230637
   H  1.313511  1.281771  1.070880
   H  -0.170199  1.408920  2.068540
   H  -0.350308  -1.014571  2.264280
   H  1.197498  -1.237838  1.384041
   H  -1.495231  1.399803  -0.062301
   H  -1.495231  -1.399803  0.062301
   H  1.197498  1.237838  -1.384041
   H  -0.350308  1.014571  -2.264280
   H  1.313511  -1.281771  -1.070880
   H  -0.170199  -1.408920  -2.068540
$end

--------------------------------------------------------------

             Standard Nuclear Orientation (Angstroms)
    I     Atom           X                Y                Z
 ----------------------------------------------------------------
    1      C       0.3001290000     0.8585700000     1.2306370000
    2      C       0.2306390000    -0.6931800000     1.3774480000
    3      C      -0.5730090000     0.7876890000    -0.0548320000
    4      C      -0.5730090000    -0.7876890000     0.0548320000
    5      C       0.2306390000     0.6931800000    -1.3774480000
    6      C       0.3001290000    -0.8585700000    -1.2306370000
    7      H       1.3135110000     1.2817710000     1.0708800000
    8      H      -0.1701990000     1.4089200000     2.0685400000
    9      H      -0.3503080000    -1.0145710000     2.2642800000
   10      H       1.1974980000    -1.2378380000     1.3840410000
   11      H      -1.4952310000     1.3998030000    -0.0623010000
   12      H      -1.4952310000    -1.3998030000     0.0623010000
   13      H       1.1974980000     1.2378380000    -1.3840410000
   14      H      -0.3503080000     1.0145710000    -2.2642800000
   15      H       1.3135110000    -1.2817710000    -1.0708800000
   16      H      -0.1701990000    -1.4089200000    -2.0685400000
 ----------------------------------------------------------------

   12    -234.2949972056      7.21e-09  Convergence criterion met
 Total energy in the final basis set =     -234.2949972056

                    Orbital Energies (a.u.)
 --------------------------------------------------------------

 Alpha MOs
 -- Occupied --
 -9.8935  -9.8935  -9.8908  -9.8908  -9.8905  -9.8905  -0.7880  -0.6728
 -0.6050  -0.5499  -0.5269  -0.4455  -0.4413  -0.4037  -0.3937  -0.3581
 -0.3315  -0.2994  -0.2968  -0.2825  -0.2553  -0.2378  -0.2288

          Ground-State Mulliken Net Atomic Charges

     Atom                 Charge (a.u.)
  ----------------------------------------
      1 C                     0.028350
      2 C                     0.035218
      3 C                    -0.086097
      4 C                    -0.086097
      5 C                     0.035218
      6 C                     0.028350
      7 H                     0.010714
      8 H                     0.017962
      9 H                     0.017218
     10 H                     0.010313
     11 H                    -0.033678
     12 H                    -0.033678
     13 H                     0.010313
     14 H                     0.017218
     15 H                     0.010714
     16 H                     0.017962
  ----------------------------------------
  Sum of atomic charges =     0.000000

                    Cartesian Multipole Moments
 -----------------------------------------------------------------
    Charge (ESU x 10^10)
                -0.0000
    Dipole Moment (Debye)
         X      -0.1361      Y       0.0000      Z       0.0000
       Tot       0.1361
    Quadrupole Moments (Debye-Ang)
        XX     -38.1145     XY       0.0000     YY     -39.1960
        XZ       0.0000     YZ       0.1437     ZZ     -38.4678

 Frequency:        64.81                 315.35                 362.26
 Force Cnst:      0.0044                 0.0917                 0.1887
 Red. Mass:       1.7705                 1.5656                 2.4404
 IR Intens:        0.004                  0.019                  0.006
 Frequency:       605.26                 711.86                 723.54
 Force Cnst:      0.7828                 0.3766                 0.3811
 Red. Mass:       3.6267                 1.2613                 1.2355
 IR Intens:        0.178                  1.251                  1.322
 Frequency:       747.16                 814.98                 854.26
 Force Cnst:      0.6566                 0.6246                 1.5646
 Red. Mass:       1.9964                 1.5960                 3.6390
 IR Intens:        0.992                  2.156                  0.060
 Frequency:       862.46                 898.29                 927.92
 Force Cnst:      0.6666                 1.0303                 1.0170
 Red. Mass:       1.5209                 2.1671                 2.0047
 IR Intens:        0.175                  0.592                  0.243
 Frequency:       970.92                 992.98                1000.63
 Force Cnst:      1.3724                 0.9588                 0.7361
 Red. Mass:       2.4709                 1.6503                 1.2477
 IR Intens:        0.001                  0.014                  0.013
 Frequency:      1047.83                1074.33                1105.52
 Force Cnst:      1.1116                 1.2071                 1.4573
 Red. Mass:       1.7184                 1.7751                 2.0237
 IR Intens:        0.271                  0.027                  0.749
 Frequency:      1153.80                1160.07                1175.53
 Force Cnst:      1.0495                 1.1356                 1.0129
 Red. Mass:       1.3380                 1.4323                 1.2441
 IR Intens:        0.006                  0.138                  0.000
 Frequency:      1193.17                1203.83                1208.03
 Force Cnst:      1.2741                 1.2055                 1.1647
 Red. Mass:       1.5189                 1.4119                 1.3546
 IR Intens:        0.331                  0.188                  0.047
 Frequency:      1234.70                1247.35                1257.75
 Force Cnst:      1.4623                 1.3843                 1.6899
 Red. Mass:       1.6280                 1.5101                 1.8131
 IR Intens:        3.324                  0.466                  0.123
 Frequency:      1269.38                1391.32                1403.28
 Force Cnst:      1.4542                 1.2287                 1.2647
 Red. Mass:       1.5317                 1.0773                 1.0901
 IR Intens:        1.594                  0.251                  1.520
 Frequency:      1413.63                1427.45                2977.09
 Force Cnst:      1.3209                 1.3443                 5.5263
 Red. Mass:       1.1219                 1.1198                 1.0583
 IR Intens:        2.403                  3.242                 86.458
 Frequency:      2978.03                2984.47                2985.36
 Force Cnst:      5.5333                 5.5803                 5.5780
 Red. Mass:       1.0589                 1.0633                 1.0623
 IR Intens:        0.007                 53.144                 47.307
 Frequency:      3015.49                3028.60                3030.69
 Force Cnst:      5.8497                 5.9131                 5.9879
 Red. Mass:       1.0919                 1.0942                 1.1065
 IR Intens:       30.151                 12.476                  1.005
 Frequency:      3036.00                3048.94                3055.50
 Force Cnst:      5.9837                 6.0584                 6.0738
 Red. Mass:       1.1018                 1.1061                 1.1042
 IR Intens:       13.170                 42.057                 76.831

 STANDARD THERMODYNAMIC QUANTITIES AT   298.15 K  AND     1.00 ATM

   This Molecule has  0 Imaginary Frequencies
   Zero point vibrational energy:       88.576 kcal/mol

   Atom    1 Element C  Has Mass   12.00000
   Atom    2 Element C  Has Mass   12.00000
   Atom    3 Element C  Has Mass   12.00000
   Atom    4 Element C  Has Mass   12.00000
   Atom    5 Element C  Has Mass   12.00000
   Atom    6 Element C  Has Mass   12.00000
   Atom    7 Element H  Has Mass    1.00783
   Atom    8 Element H  Has Mass    1.00783
   Atom    9 Element H  Has Mass    1.00783
   Atom   10 Element H  Has Mass    1.00783
   Atom   11 Element H  Has Mass    1.00783
   Atom   12 Element H  Has Mass    1.00783
   Atom   13 Element H  Has Mass    1.00783
   Atom   14 Element H  Has Mass    1.00783
   Atom   15 Element H  Has Mass    1.00783
   Atom   16 Element H  Has Mass    1.00783
   Molecular Mass:    82.078300 amu
   Principal axes and moments of inertia in amu*Bohr^2:
                             1           2           3
    Eigenvalues --      296.29263   463.03495   598.63717
          X              -0.00000    -0.00000     1.00000
          Y               0.03831     0.99927     0.00000
          Z               0.99927    -0.03831     0.00000
   Rotational Symmetry Number is   1
   The Molecule is an Asymmetric Top
   Translational Enthalpy:        0.889 kcal/mol
   Rotational Enthalpy:           0.889 kcal/mol
   Vibrational Enthalpy:         90.277 kcal/mol
   gas constant (RT):             0.592 kcal/mol
   Translational Entropy:        39.129  cal/mol.K
   Rotational Entropy:           25.910  cal/mol.K
   Vibrational Entropy:           9.782  cal/mol.K

   Total Enthalpy:               92.647 kcal/mol
   Total Entropy:                74.821  cal/mol.K
 Total job time:  51.16s(wall), 203.49s(cpu)
        *  Thank you very much for using Q-Chem.  Have a nice day.  *
