 Q-Chem 6.0 (devel), Q-Chem, Inc., Pleasanton, CA (2022)
 Q-Chem 6.0.0 for Intel X86 EM64T Linux

User input:
--------------------------------------------------------------
$comment
   ASE generated input file
$end

$rem
   METHOD                      PBE
   BASIS                       CC-PVDZ
   JOBTYPE                     OPT
   DFT_D                       D3_BJ
   GEOM_OPT_MAX_CYCLES         150
   USE_LIBQINTS                1
   MAX_SCF_CYCLES              150
   SYM_IGNORE                  TRUE
$end

$molecule
   0 1
   C  0.334810  0.835780  1.219130
   C  0.194970  -0.708310  1.390590
   C  -0.571280  0.787840  -0.047670
   C  -0.571280  -0.787840  0.047670
   C  0.194970  0.708310  -1.390590
   C  0.334810  -0.835780  -1.219130
   H  1.364710  1.195250  1.016580
   H  -0.074050  1.428730  2.060030
   H  -0.438120  -0.980850  2.258180
   H  1.134550  -1.296180  1.450240
   H  -1.492560  1.400620  -0.014760
   H  -1.492560  -1.400620  0.014760
   H  1.134550  1.296180  -1.450240
   H  -0.438120  0.980850  -2.258180
   H  1.364710  -1.195250  -1.016580
   H  -0.074050  -1.428730  -2.060030
$end

--------------------------------------------------------------

   12    -234.2949408768      6.95e-09  Convergence criterion met
 Total energy in the final basis set =     -234.2949408768
    7    -234.2949444849      4.52e-09  Convergence criterion met
 Total energy in the final basis set =     -234.2949444849
    7    -234.2949472488      7.60e-09  Convergence criterion met
 Total energy in the final basis set =     -234.2949472488
    7    -234.2949482518      1.85e-09  Convergence criterion met
 Total energy in the final basis set =     -234.2949482518
    7    -234.2949509688      6.49e-09  Convergence criterion met
 Total energy in the final basis set =     -234.2949509688
    7    -234.2949534617      4.29e-09  Convergence criterion met
 Total energy in the final basis set =     -234.2949534617
    8    -234.2949578905      2.33e-09  Convergence criterion met
 Total energy in the final basis set =     -234.2949578905
    7    -234.2949633420      8.85e-09  Convergence criterion met
    8    -234.2949779433      5.32e-09  Convergence criterion met
 Total energy in the final basis set =     -234.2949779433
    8    -234.2949849884      7.37e-09  Convergence criterion met
 Total energy in the final basis set =     -234.2949849884
    8    -234.2949902282      5.46e-09  Convergence criterion met
 Total energy in the final basis set =     -234.2949902282
    7    -234.2949935777      8.46e-09  Convergence criterion met
 Total energy in the final basis set =     -234.2949935777
    8    -234.2949957137      1.46e-09  Convergence criterion met
 Total energy in the final basis set =     -234.2949957137
    7    -234.2949967942      8.41e-09  Convergence criterion met
 Total energy in the final basis set =     -234.2949967942
    7    -234.2949972109      4.66e-09  Convergence criterion met
 Total energy in the final basis set =     -234.2949972109

                    Orbital Energies (a.u.)
 --------------------------------------------------------------

 Alpha MOs
 -- Occupied --
 -9.8935  -9.8935  -9.8908  -9.8908  -9.8905  -9.8905  -0.7880  -0.6728
 -0.6050  -0.5499  -0.5269  -0.4455  -0.4413  -0.4037  -0.3937  -0.3581
 -0.3315  -0.2994  -0.2968  -0.2825  -0.2553  -0.2378  -0.2288

          Ground-State Mulliken Net Atomic Charges

     Atom                 Charge (a.u.)
  ----------------------------------------
      1 C                     0.028350
      2 C                     0.035218
      3 C                    -0.086097
      4 C                    -0.086097
      5 C                     0.035218
      6 C                     0.028350
      7 H                     0.010714
      8 H                     0.017963
      9 H                     0.017218
     10 H                     0.010313
     11 H                    -0.033678
     12 H                    -0.033678
     13 H                     0.010313
     14 H                     0.017218
     15 H                     0.010714
     16 H                     0.017963
  ----------------------------------------
  Sum of atomic charges =     0.000000

                    Cartesian Multipole Moments
 -----------------------------------------------------------------
    Charge (ESU x 10^10)
                -0.0000
    Dipole Moment (Debye)
         X      -0.1361      Y      -0.0000      Z       0.0000
       Tot       0.1361
    Quadrupole Moments (Debye-Ang)
        XX     -38.1145     XY       0.0000     YY     -39.1960
        XZ       0.0000     YZ       0.1437     ZZ     -38.4678

 Final energy is -234.294997210873
	**  OPTIMIZATION CONVERGED  **

             Standard Nuclear Orientation (Angstroms)
    I     Atom           X                Y                Z
 ----------------------------------------------------------------
    1      C       0.3001291523     0.8585701962     1.2306370095
    2      C       0.2306390851    -0.6931801696     1.3774482372
    3      C      -0.5730088688     0.7876892311    -0.0548316200
    4      C      -0.5730088688    -0.7876892311     0.0548316200
    5      C       0.2306390851     0.6931801696    -1.3774482372
    6      C       0.3001291523    -0.8585701962    -1.2306370095
    7      H       1.3135108054     1.2817714213     1.0708797852
    8      H      -0.1701993811     1.4089200972     2.0685402150
    9      H      -0.3503076201    -1.0145712353     2.2642799921
   10      H       1.1974980763    -1.2378380049     1.3840411892
   11      H      -1.4952312490     1.3998025756    -0.0623009595
   12      H      -1.4952312490    -1.3998025756     0.0623009595
   13      H       1.1974980763     1.2378380049    -1.3840411892
   14      H      -0.3503076201     1.0145712353    -2.2642799921
   15      H       1.3135108054    -1.2817714213    -1.0708797852
   16      H      -0.1701993811    -1.4089200972    -2.0685402150
 ----------------------------------------------------------------

 Total job time:  85.66s(wall), 341.38s(cpu)
        *  Thank you very much for using Q-Chem.  Have a nice day.  *
