 Q-Chem 6.0 (devel), Q-Chem, Inc., Pleasanton, CA (2022)
 Q-Chem 6.0.0 for Intel X86 EM64T Linux

User input:
--------------------------------------------------------------
$comment
   ASE generated input file
$end

$rem
   DISTORT                     TRUE
   METHOD                      PBE
   BASIS                       CC-PVDZ
   JOBTYPE                     OPT
   DFT_D                       D3_BJ
   GEOM_OPT_MAX_CYCLES         150
   MAX_SCF_CYCLES              150
   SYM_IGNORE                  TRUE
$end

$molecule
   0 1
   C  1.029274  0.819001  -0.771810
   C  1.083242  0.794425  0.787302
   C  -0.483521  0.447195  -0.736554
   C  -0.373254  0.271741  0.828352
   C  -0.784716  -1.064328  -0.885289
   C  -0.518909  -1.267921  0.637830
   H  1.663799  0.062194  -1.277421
   H  1.253141  1.805922  -1.221068
   H  1.184783  1.809017  1.220954
   H  1.847699  0.140142  1.255755
   H  -1.174651  1.162275  -1.222715
   H  -1.070565  0.745722  1.545579
   H  -0.134050  -1.623786  -1.589295
   H  -1.839858  -1.261156  -1.160504
   H  0.403306  -1.834345  0.881863
   H  -1.359140  -1.727998  1.192909
$end

$distort
   model                       xhcff
   pressure                    50000
   npoints_heavy               302
   npoints_hydrogen            302
   scaling                     1.0
$end

--------------------------------------------------------------

   12    -234.2948184922      8.57e-09  Convergence criterion met
 Total energy in the final basis set =     -234.2948184922
   10    -234.2871381323      6.52e-09  Convergence criterion met
 Total energy in the final basis set =     -234.2871381323
   10    -234.2743018152      2.78e-09  Convergence criterion met
 Total energy in the final basis set =     -234.2743018152
    8    -234.2757677177      5.21e-09  Convergence criterion met
 Total energy in the final basis set =     -234.2757677177
    8    -234.2761323839      2.95e-09  Convergence criterion met
 Total energy in the final basis set =     -234.2761323839
    7    -234.2759474547      8.44e-09  Convergence criterion met
 Total energy in the final basis set =     -234.2759474547
    7    -234.2757550408      6.05e-09  Convergence criterion met
 Total energy in the final basis set =     -234.2757550408
    7    -234.2756205669      5.06e-09  Convergence criterion met
    8    -234.2758626057      4.80e-09  Convergence criterion met
 Total energy in the final basis set =     -234.2758626057
    8    -234.2757097231      5.19e-09  Convergence criterion met
 Total energy in the final basis set =     -234.2757097231
    8    -234.2755302937      4.72e-09  Convergence criterion met
 Total energy in the final basis set =     -234.2755302937
    8    -234.2754558883      3.14e-09  Convergence criterion met
 Total energy in the final basis set =     -234.2754558883
    7    -234.2754722705      5.23e-09  Convergence criterion met
 Total energy in the final basis set =     -234.2754722705
    7    -234.2755102340      2.82e-09  Convergence criterion met
 Total energy in the final basis set =     -234.2755102340
    6    -234.2755308682      8.10e-09  Convergence criterion met
 Total energy in the final basis set =     -234.2755308682

                    Orbital Energies (a.u.)
 --------------------------------------------------------------

 Alpha MOs
 -- Occupied --
 -9.8785  -9.8784  -9.8756  -9.8755  -9.8747  -9.8747  -0.8227  -0.6922
 -0.6178  -0.5596  -0.5326  -0.4630  -0.4448  -0.4170  -0.4081  -0.3655
 -0.3340  -0.3070  -0.2973  -0.2889  -0.2541  -0.2374  -0.2277

          Ground-State Mulliken Net Atomic Charges

     Atom                 Charge (a.u.)
  ----------------------------------------
      1 C                     0.059318
      2 C                     0.088931
      3 C                    -0.077228
      4 C                    -0.076431
      5 C                     0.088992
      6 C                     0.060423
      7 H                    -0.005564
      8 H                     0.001327
      9 H                    -0.000708
     10 H                    -0.007177
     11 H                    -0.059701
     12 H                    -0.059834
     13 H                    -0.007302
     14 H                    -0.000561
     15 H                    -0.005578
     16 H                     0.001092
  ----------------------------------------
  Sum of atomic charges =     0.000000

                    Cartesian Multipole Moments
 -----------------------------------------------------------------
    Charge (ESU x 10^10)
                -0.0000
    Dipole Moment (Debye)
         X      -0.1076      Y       0.0935      Z       0.0174
       Tot       0.1436
    Quadrupole Moments (Debye-Ang)
        XX     -38.0656     XY      -0.1314     YY     -38.0451
        XZ      -0.2439     YZ      -0.1145     ZZ     -38.8590

 Final energy is -234.275530868155
	**  OPTIMIZATION CONVERGED  **

             Standard Nuclear Orientation (Angstroms)
    I     Atom           X                Y                Z
 ----------------------------------------------------------------
    1      C       1.0018789000     0.7399156941    -0.7216037058
    2      C       1.0202871235     0.7858989704     0.7767586212
    3      C      -0.4689610752     0.4427992625    -0.7151209807
    4      C      -0.3712423723     0.2615391553     0.8052136586
    5      C      -0.7828945383    -1.0032309635    -0.8641930729
    6      C      -0.4547100153    -1.2196229273     0.5814480185
    7      H       1.5959757938    -0.0432135512    -1.1654191187
    8      H       1.2874458157     1.6573449888    -1.2066326722
    9      H       1.0874982992     1.7960315549     1.1454212664
   10      H       1.7676308746     0.2037861460     1.2934478979
   11      H      -1.1066621235     1.1647101415    -1.1941827162
   12      H      -1.0709167701     0.6832656987     1.5050844476
   13      H      -0.2151810398    -1.5500435100    -1.6012350681
   14      H      -1.8261276092    -1.1759349178    -1.0706312711
   15      H       0.4752394561    -1.7319825935     0.7703040450
   16      H      -1.2126807192    -1.7331631489     1.1472286506
 ----------------------------------------------------------------

 Total job time:  75.76s(wall), 299.70s(cpu)
        *  Thank you very much for using Q-Chem.  Have a nice day.  *
