 Q-Chem 6.0 (devel), Q-Chem, Inc., Pleasanton, CA (2022)
 Q-Chem 6.0.0 for Intel X86 EM64T Linux

User input:
--------------------------------------------------------------
$comment
   ASE generated input file
$end

$rem
   METHOD                      PBE
   BASIS                       CC-PVDZ
   JOBTYPE                     FREQ
   DFT_D                       D3_BJ
   VIBMAN_PRINT                7
   SYM_IGNORE                  TRUE
$end

$molecule
   0 1
   C  1.029274  0.819001  -0.771810
   C  1.083242  0.794425  0.787302
   C  -0.483521  0.447195  -0.736554
   C  -0.373254  0.271741  0.828352
   C  -0.784716  -1.064328  -0.885289
   C  -0.518909  -1.267921  0.637830
   H  1.663799  0.062194  -1.277421
   H  1.253141  1.805922  -1.221068
   H  1.184783  1.809017  1.220954
   H  1.847699  0.140142  1.255755
   H  -1.174651  1.162275  -1.222715
   H  -1.070565  0.745722  1.545579
   H  -0.134050  -1.623786  -1.589295
   H  -1.839858  -1.261156  -1.160504
   H  0.403306  -1.834345  0.881863
   H  -1.359140  -1.727998  1.192909
$end

--------------------------------------------------------------

             Standard Nuclear Orientation (Angstroms)
    I     Atom           X                Y                Z
 ----------------------------------------------------------------
    1      C       1.0292740000     0.8190010000    -0.7718100000
    2      C       1.0832420000     0.7944250000     0.7873020000
    3      C      -0.4835210000     0.4471950000    -0.7365540000
    4      C      -0.3732540000     0.2717410000     0.8283520000
    5      C      -0.7847160000    -1.0643280000    -0.8852890000
    6      C      -0.5189090000    -1.2679210000     0.6378300000
    7      H       1.6637990000     0.0621940000    -1.2774210000
    8      H       1.2531410000     1.8059220000    -1.2210680000
    9      H       1.1847830000     1.8090170000     1.2209540000
   10      H       1.8476990000     0.1401420000     1.2557550000
   11      H      -1.1746510000     1.1622750000    -1.2227150000
   12      H      -1.0705650000     0.7457220000     1.5455790000
   13      H      -0.1340500000    -1.6237860000    -1.5892950000
   14      H      -1.8398580000    -1.2611560000    -1.1605040000
   15      H       0.4033060000    -1.8343450000     0.8818630000
   16      H      -1.3591400000    -1.7279980000     1.1929090000
 ----------------------------------------------------------------

   12    -234.2948184922      8.57e-09  Convergence criterion met
 Total energy in the final basis set =     -234.2948184922

                    Orbital Energies (a.u.)
 --------------------------------------------------------------

 Alpha MOs
 -- Occupied --
 -9.8936  -9.8936  -9.8911  -9.8910  -9.8906  -9.8906  -0.7885  -0.6731
 -0.6045  -0.5501  -0.5272  -0.4455  -0.4417  -0.4037  -0.3933  -0.3586
 -0.3308  -0.3003  -0.2966  -0.2823  -0.2551  -0.2386  -0.2287

          Ground-State Mulliken Net Atomic Charges

     Atom                 Charge (a.u.)
  ----------------------------------------
      1 C                     0.022759
      2 C                     0.037393
      3 C                    -0.084795
      4 C                    -0.083859
      5 C                     0.037709
      6 C                     0.023277
      7 H                     0.011349
      8 H                     0.018465
      9 H                     0.017167
     10 H                     0.010362
     11 H                    -0.033486
     12 H                    -0.033732
     13 H                     0.010318
     14 H                     0.017377
     15 H                     0.011361
     16 H                     0.018333
  ----------------------------------------
  Sum of atomic charges =     0.000000

                    Cartesian Multipole Moments
 -----------------------------------------------------------------
    Charge (ESU x 10^10)
                 0.0000
    Dipole Moment (Debye)
         X      -0.0983      Y       0.0853      Z       0.0163
       Tot       0.1311
    Quadrupole Moments (Debye-Ang)
        XX     -38.2819     XY      -0.1593     YY     -38.2888
        XZ      -0.1926     YZ      -0.0228     ZZ     -39.2162

 Frequency:        92.66                 301.90                 363.26
 Force Cnst:      0.0090                 0.0837                 0.1891
 Red. Mass:       1.7762                 1.5578                 2.4317
 IR Intens:        0.005                  0.038                  0.013
 Frequency:       602.89                 711.83                 716.34
 Force Cnst:      0.7396                 0.3736                 0.3916
 Red. Mass:       3.4535                 1.2515                 1.2954
 IR Intens:        0.791                  1.426                  0.766
 Frequency:       745.07                 806.87                 853.81
 Force Cnst:      0.6577                 0.6137                 1.4629
 Red. Mass:       2.0110                 1.5999                 3.4059
 IR Intens:        0.960                  1.976                  0.097
 Frequency:       865.47                 894.76                 927.62
 Force Cnst:      0.6648                 1.0320                 1.0782
 Red. Mass:       1.5063                 2.1879                 2.1266
 IR Intens:        0.199                  0.536                  0.207
 Frequency:       968.87                 988.74                1001.47
 Force Cnst:      1.3077                 0.9789                 0.7109
 Red. Mass:       2.3644                 1.6995                 1.2031
 IR Intens:        0.002                  0.029                  0.010
 Frequency:      1043.75                1072.78                1098.87
 Force Cnst:      1.1053                 1.2521                 1.4611
 Red. Mass:       1.7220                 1.8466                 2.0537
 IR Intens:        0.297                  0.031                  0.744
 Frequency:      1148.08                1161.14                1177.19
 Force Cnst:      1.0717                 1.1228                 1.0254
 Red. Mass:       1.3800                 1.4134                 1.2559
 IR Intens:        0.034                  0.073                  0.000
 Frequency:      1190.18                1205.44                1207.74
 Force Cnst:      1.2184                 1.1962                 1.1662
 Red. Mass:       1.4598                 1.3972                 1.3569
 IR Intens:        0.336                  0.208                  0.120
 Frequency:      1231.57                1245.43                1253.49
 Force Cnst:      1.4608                 1.3748                 1.6392
 Red. Mass:       1.6346                 1.5044                 1.7707
 IR Intens:        2.995                  0.664                  0.257
 Frequency:      1266.26                1392.65                1399.15
 Force Cnst:      1.4482                 1.2322                 1.2476
 Red. Mass:       1.5330                 1.0783                 1.0817
 IR Intens:        1.606                  0.143                  1.302
 Frequency:      1408.71                1426.92                2975.85
 Force Cnst:      1.3216                 1.3397                 5.5216
 Red. Mass:       1.1303                 1.1168                 1.0583
 IR Intens:        2.385                  3.689                 88.344
 Frequency:      2976.44                2985.14                2986.99
 Force Cnst:      5.5255                 5.5776                 5.5825
 Red. Mass:       1.0586                 1.0624                 1.0620
 IR Intens:        3.502                 49.466                 43.432
 Frequency:      3013.52                3026.32                3029.53
 Force Cnst:      5.8380                 5.9045                 5.9812
 Red. Mass:       1.0911                 1.0942                 1.1061
 IR Intens:       33.808                 10.382                 11.970
 Frequency:      3034.05                3049.39                3055.56
 Force Cnst:      5.9825                 6.0601                 6.0781
 Red. Mass:       1.1030                 1.1061                 1.1049
 IR Intens:        8.506                 44.492                 68.972

 STANDARD THERMODYNAMIC QUANTITIES AT   298.15 K  AND     1.00 ATM

   This Molecule has  0 Imaginary Frequencies
   Zero point vibrational energy:       88.496 kcal/mol

   Atom    1 Element C  Has Mass   12.00000
   Atom    2 Element C  Has Mass   12.00000
   Atom    3 Element C  Has Mass   12.00000
   Atom    4 Element C  Has Mass   12.00000
   Atom    5 Element C  Has Mass   12.00000
   Atom    6 Element C  Has Mass   12.00000
   Atom    7 Element H  Has Mass    1.00783
   Atom    8 Element H  Has Mass    1.00783
   Atom    9 Element H  Has Mass    1.00783
   Atom   10 Element H  Has Mass    1.00783
   Atom   11 Element H  Has Mass    1.00783
   Atom   12 Element H  Has Mass    1.00783
   Atom   13 Element H  Has Mass    1.00783
   Atom   14 Element H  Has Mass    1.00783
   Atom   15 Element H  Has Mass    1.00783
   Atom   16 Element H  Has Mass    1.00783
   Molecular Mass:    82.078300 amu
   Principal axes and moments of inertia in amu*Bohr^2:
                             1           2           3
    Eigenvalues --      295.14228   464.10327   597.31952
          X               0.65598     0.03109     0.75414
          Y               0.74831    -0.15731    -0.64443
          Z               0.09860     0.98706    -0.12645
   Rotational Symmetry Number is   1
   The Molecule is an Asymmetric Top
   Translational Enthalpy:        0.889 kcal/mol
   Rotational Enthalpy:           0.889 kcal/mol
   Vibrational Enthalpy:         90.178 kcal/mol
   gas constant (RT):             0.592 kcal/mol
   Translational Entropy:        39.129  cal/mol.K
   Rotational Entropy:           25.906  cal/mol.K
   Vibrational Entropy:           9.178  cal/mol.K

   Total Enthalpy:               92.548 kcal/mol
   Total Entropy:                74.213  cal/mol.K
 Total job time:  54.14s(wall), 215.35s(cpu)
        *  Thank you very much for using Q-Chem.  Have a nice day.  *
