 Q-Chem 6.0 (devel), Q-Chem, Inc., Pleasanton, CA (2022)
 Q-Chem 6.0.0 for Intel X86 EM64T Linux

User input:
--------------------------------------------------------------
$comment
   ASE generated input file
$end

$rem
   METHOD                      PBE
   BASIS                       CC-PVDZ
   JOBTYPE                     OPT
   DFT_D                       D3_BJ
   GEOM_OPT_MAX_CYCLES         150
   USE_LIBQINTS                1
   MAX_SCF_CYCLES              150
   SYM_IGNORE                  TRUE
$end

$molecule
   0 1
   C  0.998480  0.824250  -0.676730
   C  1.060280  0.806200  0.815230
   C  -0.533710  0.531940  -0.600880
   C  -0.335680  0.226670  0.777580
   C  -0.906080  -0.961170  -0.792590
   C  -0.428600  -1.283510  0.580210
   H  1.542600  -0.023250  -1.155770
   H  1.290300  1.820470  -1.079810
   H  0.979340  1.850730  1.193790
   H  1.861350  0.212790  1.305660
   H  -0.682340  0.761050  -1.635440
   H  -1.103230  0.627320  1.477120
   H  -0.389230  -1.521120  -1.605100
   H  -2.017170  -1.030600  -0.860240
   H  0.580950  -1.752600  0.549270
   H  -1.190680  -1.811070  1.193590
$end

--------------------------------------------------------------

   13    -234.1912318022      6.88e-09  Convergence criterion met
 Total energy in the final basis set =     -234.1912318022
   11    -234.2278511740      2.33e-09  Convergence criterion met
 Total energy in the final basis set =     -234.2278511740
   11    -234.2505358481      1.47e-09  Convergence criterion met
 Total energy in the final basis set =     -234.2505358481
   10    -234.2645934788      8.61e-09  Convergence criterion met
 Total energy in the final basis set =     -234.2645934788
   10    -234.2744197069      6.65e-09  Convergence criterion met
 Total energy in the final basis set =     -234.2744197069
   10    -234.2816864459      4.72e-09  Convergence criterion met
 Total energy in the final basis set =     -234.2816864459
   10    -234.2867611506      1.91e-09  Convergence criterion met
 Total energy in the final basis set =     -234.2867611506
   10    -234.2900993908      3.96e-09  Convergence criterion met
    8    -234.2948013900      3.25e-09  Convergence criterion met
 Total energy in the final basis set =     -234.2948013900
    8    -234.2948088758      3.81e-09  Convergence criterion met
 Total energy in the final basis set =     -234.2948088758
    7    -234.2948127094      8.95e-09  Convergence criterion met
 Total energy in the final basis set =     -234.2948127094
    7    -234.2948151249      4.31e-09  Convergence criterion met
 Total energy in the final basis set =     -234.2948151249
    7    -234.2948168918      4.04e-09  Convergence criterion met
 Total energy in the final basis set =     -234.2948168918
    7    -234.2948179715      4.12e-09  Convergence criterion met
 Total energy in the final basis set =     -234.2948179715
    7    -234.2948184921      2.12e-09  Convergence criterion met
 Total energy in the final basis set =     -234.2948184921

                    Orbital Energies (a.u.)
 --------------------------------------------------------------

 Alpha MOs
 -- Occupied --
 -9.8936  -9.8936  -9.8911  -9.8910  -9.8906  -9.8906  -0.7885  -0.6731
 -0.6045  -0.5501  -0.5272  -0.4455  -0.4417  -0.4037  -0.3933  -0.3586
 -0.3308  -0.3003  -0.2966  -0.2823  -0.2551  -0.2386  -0.2287

          Ground-State Mulliken Net Atomic Charges

     Atom                 Charge (a.u.)
  ----------------------------------------
      1 C                     0.022759
      2 C                     0.037394
      3 C                    -0.084795
      4 C                    -0.083860
      5 C                     0.037709
      6 C                     0.023278
      7 H                     0.011349
      8 H                     0.018465
      9 H                     0.017167
     10 H                     0.010362
     11 H                    -0.033486
     12 H                    -0.033732
     13 H                     0.010318
     14 H                     0.017377
     15 H                     0.011361
     16 H                     0.018333
  ----------------------------------------
  Sum of atomic charges =     0.000000

                    Cartesian Multipole Moments
 -----------------------------------------------------------------
    Charge (ESU x 10^10)
                 0.0000
    Dipole Moment (Debye)
         X      -0.0983      Y       0.0853      Z       0.0163
       Tot       0.1311
    Quadrupole Moments (Debye-Ang)
        XX     -38.2819     XY      -0.1593     YY     -38.2888
        XZ      -0.1926     YZ      -0.0228     ZZ     -39.2162

 Final energy is -234.294818492123
	**  OPTIMIZATION CONVERGED  **

             Standard Nuclear Orientation (Angstroms)
    I     Atom           X                Y                Z
 ----------------------------------------------------------------
    1      C       1.0292743031     0.8190006681    -0.7718097557
    2      C       1.0832421824     0.7944249539     0.7873021343
    3      C      -0.4835207976     0.4471947821    -0.7365535693
    4      C      -0.3732536576     0.2717406044     0.8283519615
    5      C      -0.7847161287    -1.0643281019    -0.8852890323
    6      C      -0.5189094814    -1.2679214088     0.6378304708
    7      H       1.6637986527     0.0621941209    -1.2774205429
    8      H       1.2531413670     1.8059224402    -1.2210675091
    9      H       1.1847828090     1.8090168768     1.2209539395
   10      H       1.8476986371     0.1401415773     1.2557550490
   11      H      -1.1746507291     1.1622753333    -1.2227151783
   12      H      -1.0705649982     0.7457224269     1.5455788687
   13      H      -0.1340503131    -1.6237858600    -1.5892949035
   14      H      -1.8398580773    -1.2611559911    -1.1605044504
   15      H       0.4033062352    -1.8343446348     0.8818630399
   16      H      -1.3591400036    -1.7279977873     1.1929094778
 ----------------------------------------------------------------

 Total job time:  188.60s(wall), 752.10s(cpu)
        *  Thank you very much for using Q-Chem.  Have a nice day.  *
