 Q-Chem 6.0 (devel), Q-Chem, Inc., Pleasanton, CA (2022)
 Q-Chem 6.0.0 for Intel X86 EM64T Linux

User input:
--------------------------------------------------------------
$comment
   ASE generated input file
$end

$rem
   DISTORT                     TRUE
   METHOD                      PBE
   BASIS                       CC-PVDZ
   JOBTYPE                     OPT
   DFT_D                       D3_BJ
   GEOM_OPT_MAX_CYCLES         150
   MAX_SCF_CYCLES              150
   SYM_IGNORE                  TRUE
$end

$molecule
   0 1
   C  0.228884  -0.853763  0.781031
   C  0.624920  0.625113  0.781105
   C  -0.853844  0.228716  0.781068
   C  0.625113  0.624920  -0.781105
   C  0.228716  -0.853844  -0.781068
   C  -0.853763  0.228884  -0.781031
   H  0.437540  -1.631780  1.527857
   H  1.194680  1.194574  1.527863
   H  -1.632067  0.437029  1.527775
   H  1.194574  1.194680  -1.527863
   H  0.437029  -1.632067  -1.527775
   H  -1.631780  0.437540  -1.527857
$end

$distort
   model                       xhcff
   pressure                    50000
   npoints_heavy               302
   npoints_hydrogen            302
   scaling                     1.0
$end

--------------------------------------------------------------

   12    -231.7892606328      2.48e-10  Convergence criterion met
 Total energy in the final basis set =     -231.7892606328
    9    -231.7841938136      1.59e-09  Convergence criterion met
 Total energy in the final basis set =     -231.7841938136
    9    -231.7749853701      1.79e-09  Convergence criterion met
 Total energy in the final basis set =     -231.7749853701
    8    -231.7758758672      1.03e-09  Convergence criterion met
 Total energy in the final basis set =     -231.7758758672
    7    -231.7758962756      6.33e-09  Convergence criterion met
 Total energy in the final basis set =     -231.7758962756
    7    -231.7758812180      5.31e-10  Convergence criterion met
 Total energy in the final basis set =     -231.7758812180

                    Orbital Energies (a.u.)
 --------------------------------------------------------------

 Alpha MOs
 -- Occupied --
 -9.8938  -9.8937  -9.8936  -9.8936  -9.8936  -9.8935  -0.9182  -0.6908
 -0.5850  -0.5849  -0.4914  -0.4589  -0.4589  -0.4044  -0.3842  -0.3594
 -0.3594  -0.2577  -0.2576  -0.1892  -0.1889

          Ground-State Mulliken Net Atomic Charges

     Atom                 Charge (a.u.)
  ----------------------------------------
      1 C                     0.055899
      2 C                     0.055963
      3 C                     0.055897
      4 C                     0.055963
      5 C                     0.055897
      6 C                     0.055899
      7 H                    -0.055903
      8 H                    -0.055944
      9 H                    -0.055912
     10 H                    -0.055944
     11 H                    -0.055912
     12 H                    -0.055903
  ----------------------------------------
  Sum of atomic charges =     0.000000

                    Cartesian Multipole Moments
 -----------------------------------------------------------------
    Charge (ESU x 10^10)
                 0.0000
    Dipole Moment (Debye)
         X      -0.0008      Y      -0.0008      Z       0.0000
       Tot       0.0011
    Quadrupole Moments (Debye-Ang)
        XX     -35.2983     XY       0.0006     YY     -35.2983
        XZ       0.0005     YZ      -0.0005     ZZ     -33.0237

 Final energy is -231.775881218046
	**  OPTIMIZATION CONVERGED  **

             Standard Nuclear Orientation (Angstroms)
    I     Atom           X                Y                Z
 ----------------------------------------------------------------
    1      C       0.2224358674    -0.8289048105     0.7558783881
    2      C       0.6070119199     0.6070583332     0.7562444445
    3      C      -0.8289273028     0.2224504083     0.7559036962
    4      C       0.6070583331     0.6070119199    -0.7562444445
    5      C       0.2224504083    -0.8289273028    -0.7559036962
    6      C      -0.8289048106     0.2224358674    -0.7558783881
    7      H       0.4245883591    -1.5852608234     1.4823933946
    8      H       1.1603745477     1.1601295494     1.4832448943
    9      H      -1.5853919973     0.4244379491     1.4823533550
   10      H       1.1601295495     1.1603745476    -1.4832448943
   11      H       0.4244379492    -1.5853919972    -1.4823533550
   12      H      -1.5852608235     0.4245883590    -1.4823933945
 ----------------------------------------------------------------

 Total job time:  14.83s(wall), 58.02s(cpu)
        *  Thank you very much for using Q-Chem.  Have a nice day.  *
