 Q-Chem 6.0 (devel), Q-Chem, Inc., Pleasanton, CA (2022)
 Q-Chem 6.0.0 for Intel X86 EM64T Linux

User input:
--------------------------------------------------------------
$comment
   ASE generated input file
$end

$rem
   METHOD                      PBE
   BASIS                       CC-PVDZ
   JOBTYPE                     FREQ
   DFT_D                       D3_BJ
   VIBMAN_PRINT                7
   SYM_IGNORE                  TRUE
$end

$molecule
   0 1
   C  0.228884  -0.853763  0.781031
   C  0.624920  0.625113  0.781105
   C  -0.853844  0.228716  0.781068
   C  0.625113  0.624920  -0.781105
   C  0.228716  -0.853844  -0.781068
   C  -0.853763  0.228884  -0.781031
   H  0.437540  -1.631780  1.527857
   H  1.194680  1.194574  1.527863
   H  -1.632067  0.437029  1.527775
   H  1.194574  1.194680  -1.527863
   H  0.437029  -1.632067  -1.527775
   H  -1.631780  0.437540  -1.527857
$end

--------------------------------------------------------------

             Standard Nuclear Orientation (Angstroms)
    I     Atom           X                Y                Z
 ----------------------------------------------------------------
    1      C       0.2288840000    -0.8537630000     0.7810310000
    2      C       0.6249200000     0.6251130000     0.7811050000
    3      C      -0.8538440000     0.2287160000     0.7810680000
    4      C       0.6251130000     0.6249200000    -0.7811050000
    5      C       0.2287160000    -0.8538440000    -0.7810680000
    6      C      -0.8537630000     0.2288840000    -0.7810310000
    7      H       0.4375400000    -1.6317800000     1.5278570000
    8      H       1.1946800000     1.1945740000     1.5278630000
    9      H      -1.6320670000     0.4370290000     1.5277750000
   10      H       1.1945740000     1.1946800000    -1.5278630000
   11      H       0.4370290000    -1.6320670000    -1.5277750000
   12      H      -1.6317800000     0.4375400000    -1.5278570000
 ----------------------------------------------------------------

   12    -231.7892606328      2.48e-10  Convergence criterion met
 Total energy in the final basis set =     -231.7892606328

                    Orbital Energies (a.u.)
 --------------------------------------------------------------

 Alpha MOs
 -- Occupied --
 -9.9064  -9.9064  -9.9063  -9.9063  -9.9063  -9.9063  -0.8829  -0.6758
 -0.5738  -0.5738  -0.4775  -0.4574  -0.4574  -0.3902  -0.3784  -0.3508
 -0.3508  -0.2537  -0.2537  -0.1917  -0.1917

          Ground-State Mulliken Net Atomic Charges

     Atom                 Charge (a.u.)
  ----------------------------------------
      1 C                     0.033785
      2 C                     0.033799
      3 C                     0.033794
      4 C                     0.033799
      5 C                     0.033794
      6 C                     0.033785
      7 H                    -0.033773
      8 H                    -0.033819
      9 H                    -0.033786
     10 H                    -0.033819
     11 H                    -0.033786
     12 H                    -0.033773
  ----------------------------------------
  Sum of atomic charges =     0.000000

                    Cartesian Multipole Moments
 -----------------------------------------------------------------
    Charge (ESU x 10^10)
                 0.0000
    Dipole Moment (Debye)
         X       0.0000      Y       0.0000      Z       0.0000
       Tot       0.0000
    Quadrupole Moments (Debye-Ang)
        XX     -35.6112     XY      -0.0006     YY     -35.6112
        XZ       0.0007     YZ      -0.0007     ZZ     -33.0116

 Frequency:       620.38                 649.36                 654.07
 Force Cnst:      0.6788                 0.3952                 0.3963
 Red. Mass:       2.9936                 1.5906                 1.5722
 IR Intens:        0.000                  0.000                  0.000
 Frequency:       756.25                 759.81                 784.77
 Force Cnst:      1.0541                 1.0688                 0.4130
 Red. Mass:       3.1282                 3.1424                 1.1381
 IR Intens:        0.000                  0.000                 40.645
 Frequency:       787.72                 821.76                 827.45
 Force Cnst:      0.4072                 0.6092                 0.6324
 Red. Mass:       1.1137                 1.5312                 1.5678
 IR Intens:       38.605                  3.523                  5.270
 Frequency:       913.65                 917.04                 921.09
 Force Cnst:      0.6647                 2.0955                 3.1226
 Red. Mass:       1.3516                 4.2293                 6.2468
 IR Intens:        0.250                  1.522                  2.110
 Frequency:       939.73                 942.86                 948.20
 Force Cnst:      0.6491                 0.6791                 0.7151
 Red. Mass:       1.2476                 1.2966                 1.3499
 IR Intens:        2.990                  0.028                  0.000
 Frequency:       982.90                 988.38                1102.10
 Force Cnst:      1.7618                 1.8091                 2.7467
 Red. Mass:       3.0951                 3.1431                 3.8381
 IR Intens:        0.001                  0.000                  0.001
 Frequency:      1118.32                1123.53                1214.15
 Force Cnst:      1.0014                 1.0108                 1.8439
 Red. Mass:       1.3590                 1.3590                 2.1230
 IR Intens:        0.000                  0.000                 10.515
 Frequency:      1220.06                1287.56                1319.44
 Force Cnst:      1.8597                 5.6652                 3.5928
 Red. Mass:       2.1205                 5.8000                 3.5027
 IR Intens:       10.508                  0.001                  0.205
 Frequency:      3112.51                3114.24                3126.38
 Force Cnst:      6.2180                 6.2263                 6.3056
 Red. Mass:       1.0894                 1.0896                 1.0949
 IR Intens:        0.092                  0.000                 29.762
 Frequency:      3128.07                3134.39                3140.39
 Force Cnst:      6.3133                 6.3584                 6.4650
 Red. Mass:       1.0951                 1.0985                 1.1126
 IR Intens:       29.775                 55.753                  0.112

 STANDARD THERMODYNAMIC QUANTITIES AT   298.15 K  AND     1.00 ATM

   This Molecule has  0 Imaginary Frequencies
   Zero point vibrational energy:       59.122 kcal/mol

   Atom    1 Element C  Has Mass   12.00000
   Atom    2 Element C  Has Mass   12.00000
   Atom    3 Element C  Has Mass   12.00000
   Atom    4 Element C  Has Mass   12.00000
   Atom    5 Element C  Has Mass   12.00000
   Atom    6 Element C  Has Mass   12.00000
   Atom    7 Element H  Has Mass    1.00783
   Atom    8 Element H  Has Mass    1.00783
   Atom    9 Element H  Has Mass    1.00783
   Atom   10 Element H  Has Mass    1.00783
   Atom   11 Element H  Has Mass    1.00783
   Atom   12 Element H  Has Mass    1.00783
   Molecular Mass:    78.046980 amu
   Principal axes and moments of inertia in amu*Bohr^2:
                             1           2           3
    Eigenvalues --      262.52692   338.52310   338.53389
          X              -0.00004     0.70711     0.70711
          Y               0.00004    -0.70711     0.70711
          Z               1.00000     0.00005    -0.00000
   Rotational Symmetry Number is   1
   The Molecule is an Asymmetric Top
   Translational Enthalpy:        0.889 kcal/mol
   Rotational Enthalpy:           0.889 kcal/mol
   Vibrational Enthalpy:         60.000 kcal/mol
   gas constant (RT):             0.592 kcal/mol
   Translational Entropy:        38.979  cal/mol.K
   Rotational Entropy:           24.912  cal/mol.K
   Vibrational Entropy:           3.705  cal/mol.K

   Total Enthalpy:               62.370 kcal/mol
   Total Entropy:                67.596  cal/mol.K
 Total job time:  25.97s(wall), 102.76s(cpu)
        *  Thank you very much for using Q-Chem.  Have a nice day.  *
