 Q-Chem 6.0 (devel), Q-Chem, Inc., Pleasanton, CA (2022)
 Q-Chem 6.0.0 for Intel X86 EM64T Linux

User input:
--------------------------------------------------------------
$comment
   ASE generated input file
$end

$rem
   METHOD                      PBE
   BASIS                       CC-PVDZ
   JOBTYPE                     OPT
   DFT_D                       D3_BJ
   GEOM_OPT_MAX_CYCLES         150
   USE_LIBQINTS                1
   MAX_SCF_CYCLES              150
   SYM_IGNORE                  TRUE
$end

$molecule
   0 1
   C  0.175970  -0.856760  0.755210
   C  0.653990  0.580770  0.755210
   C  -0.829960  0.275990  0.755210
   C  0.580770  0.653990  -0.755210
   C  0.275990  -0.829960  -0.755210
   C  -0.856760  0.175970  -0.755210
   H  0.826090  -1.365130  1.497550
   H  0.769190  1.397980  1.497550
   H  -1.595280  -0.032850  1.497550
   H  1.397980  0.769190  -1.497550
   H  -0.032850  -1.595280  -1.497550
   H  -1.365130  0.826090  -1.497550
$end

--------------------------------------------------------------

   11    -231.6937647286      5.91e-09  Convergence criterion met
 Total energy in the final basis set =     -231.6937647286
   10    -231.7107329218      5.49e-09  Convergence criterion met
 Total energy in the final basis set =     -231.7107329218
   10    -231.7299914809      8.99e-09  Convergence criterion met
 Total energy in the final basis set =     -231.7299914809
   10    -231.7444330325      5.33e-09  Convergence criterion met
 Total energy in the final basis set =     -231.7444330325
   10    -231.7597985991      5.86e-09  Convergence criterion met
 Total energy in the final basis set =     -231.7597985991
   10    -231.7747642409      7.18e-09  Convergence criterion met
 Total energy in the final basis set =     -231.7747642409
    9    -231.7843027059      8.67e-09  Convergence criterion met
 Total energy in the final basis set =     -231.7843027059
    9    -231.7880844041      5.38e-09  Convergence criterion met
 Total energy in the final basis set =     -231.7880844041
    8    -231.7890935978      5.08e-09  Convergence criterion met
 Total energy in the final basis set =     -231.7890935978
    8    -231.7892311833      6.97e-09  Convergence criterion met
 Total energy in the final basis set =     -231.7892311833
    8    -231.7892565529      1.94e-09  Convergence criterion met
 Total energy in the final basis set =     -231.7892565529
    7    -231.7892602309      7.65e-09  Convergence criterion met
 Total energy in the final basis set =     -231.7892602309
    7    -231.7892606331      1.80e-09  Convergence criterion met
 Total energy in the final basis set =     -231.7892606331

                    Orbital Energies (a.u.)
 --------------------------------------------------------------

 Alpha MOs
 -- Occupied --
 -9.9064  -9.9064  -9.9063  -9.9063  -9.9063  -9.9063  -0.8829  -0.6758
 -0.5738  -0.5738  -0.4775  -0.4574  -0.4574  -0.3902  -0.3784  -0.3508
 -0.3508  -0.2537  -0.2537  -0.1917  -0.1917

          Ground-State Mulliken Net Atomic Charges

     Atom                 Charge (a.u.)
  ----------------------------------------
      1 C                     0.033785
      2 C                     0.033799
      3 C                     0.033794
      4 C                     0.033799
      5 C                     0.033794
      6 C                     0.033785
      7 H                    -0.033773
      8 H                    -0.033819
      9 H                    -0.033786
     10 H                    -0.033819
     11 H                    -0.033786
     12 H                    -0.033773
  ----------------------------------------
  Sum of atomic charges =     0.000000

                    Cartesian Multipole Moments
 -----------------------------------------------------------------
    Charge (ESU x 10^10)
                 0.0000
    Dipole Moment (Debye)
         X       0.0000      Y       0.0000      Z      -0.0000
       Tot       0.0000
    Quadrupole Moments (Debye-Ang)
        XX     -35.6112     XY      -0.0006     YY     -35.6112
        XZ       0.0007     YZ      -0.0007     ZZ     -33.0116

 Final energy is -231.789260633145
	**  OPTIMIZATION CONVERGED  **

             Standard Nuclear Orientation (Angstroms)
    I     Atom           X                Y                Z
 ----------------------------------------------------------------
    1      C       0.2288837152    -0.8537627860     0.7810312466
    2      C       0.6249195996     0.6251128434     0.7811048383
    3      C      -0.8538439300     0.2287156739     0.7810683403
    4      C       0.6251128434     0.6249195996    -0.7811048383
    5      C       0.2287156738    -0.8538439299    -0.7810683403
    6      C      -0.8537627861     0.2288837152    -0.7810312466
    7      H       0.4375397654    -1.6317804789     1.5278567302
    8      H       1.1946799828     1.1945735397     1.5278633696
    9      H      -1.6320674038     0.4370294788     1.5277747884
   10      H       1.1945735399     1.1946799826    -1.5278633696
   11      H       0.4370294788    -1.6320674036    -1.5277747885
   12      H      -1.6317804791     0.4375397652    -1.5278567301
 ----------------------------------------------------------------

 Total job time:  46.02s(wall), 183.54s(cpu)
        *  Thank you very much for using Q-Chem.  Have a nice day.  *
